 Output coordinates in angstroms (scale by  1.889725989 to convert to a.u.)

  No.       Tag          Charge          X              Y              Z
 ---- ---------------- ---------- -------------- -------------- --------------
    1 C                    6.0000    -1.41525332     0.23022179     0.00000000
    2 C                    6.0000     1.41525332    -0.23022179     0.00000000
    3 C                    6.0000    -0.49513316     1.31446087     0.00000000
    4 C                    6.0000     0.49513316    -1.31446087     0.00000000
    5 C                    6.0000     0.88940904     1.09094937     0.00000000
    6 C                    6.0000    -0.88940904    -1.09094937     0.00000000
    7 H                    1.0000    -0.87955120     2.34373437     0.00000000
    8 H                    1.0000     0.87955120    -2.34373437     0.00000000
    9 H                    1.0000     1.57790416     1.94500613     0.00000000
   10 H                    1.0000    -1.57790416    -1.94500613     0.00000000
   11 C                    6.0000     2.88458450    -0.52108938     0.00000000
   12 C                    6.0000    -2.88458450     0.52108938     0.00000000
   13 H                    1.0000     3.14033568    -1.59196057     0.00000000
   14 H                    1.0000    -3.14033568     1.59196057     0.00000000
   15 C                    6.0000     3.88004281     0.38225354     0.00000000
   16 C                    6.0000    -3.88004281    -0.38225354     0.00000000
   17 H                    1.0000     3.69467659     1.46243896     0.00000000
   18 H                    1.0000    -3.69467659    -1.46243896     0.00000000
   19 H                    1.0000     4.93164535     0.07110495     0.00000000
   20 H                    1.0000    -4.93164535    -0.07110495     0.00000000

         Total SCF energy =   -379.768962520502

 Vector   11  Occ=2.000000D+00  E=-1.090299D+00

 Vector   12  Occ=2.000000D+00  E=-1.020254D+00

 Vector   13  Occ=2.000000D+00  E=-9.749257D-01

 Vector   14  Occ=2.000000D+00  E=-9.503033D-01

 Vector   15  Occ=2.000000D+00  E=-9.096345D-01

 Vector   16  Occ=2.000000D+00  E=-7.998827D-01

 Vector   17  Occ=2.000000D+00  E=-7.628267D-01

 Vector   18  Occ=2.000000D+00  E=-7.276318D-01

 Vector   19  Occ=2.000000D+00  E=-6.967771D-01

 Vector   20  Occ=2.000000D+00  E=-6.280522D-01

 Vector   21  Occ=2.000000D+00  E=-6.056782D-01

 Vector   22  Occ=2.000000D+00  E=-5.729427D-01

 Vector   23  Occ=2.000000D+00  E=-5.536033D-01

 Vector   24  Occ=2.000000D+00  E=-5.531658D-01

 Vector   25  Occ=2.000000D+00  E=-5.253605D-01

 Vector   26  Occ=2.000000D+00  E=-4.966991D-01

 Vector   27  Occ=2.000000D+00  E=-4.925282D-01

 Vector   28  Occ=2.000000D+00  E=-4.637308D-01

 Vector   29  Occ=2.000000D+00  E=-4.464304D-01

 Vector   30  Occ=2.000000D+00  E=-4.216548D-01

 Vector   31  Occ=2.000000D+00  E=-4.156220D-01

 Vector   32  Occ=2.000000D+00  E=-3.769628D-01

 Vector   33  Occ=2.000000D+00  E=-3.151273D-01

 Vector   34  Occ=2.000000D+00  E=-2.783651D-01

 Vector   35  Occ=2.000000D+00  E=-2.221902D-01

 Vector   36  Occ=0.000000D+00  E= 1.989921D-01

 Vector   37  Occ=0.000000D+00  E= 2.685138D-01

 Vector   38  Occ=0.000000D+00  E= 3.088259D-01

 Vector   39  Occ=0.000000D+00  E= 3.970764D-01

 Vector   40  Occ=0.000000D+00  E= 5.217567D-01

 Vector   41  Occ=0.000000D+00  E= 5.650155D-01

 Vector   42  Occ=0.000000D+00  E= 5.755612D-01

 Vector   43  Occ=0.000000D+00  E= 6.215619D-01

 Vector   44  Occ=0.000000D+00  E= 6.258005D-01

 Vector   45  Occ=0.000000D+00  E= 6.582321D-01

       Multipole analysis of the density wrt the origin
       ------------------------------------------------

     L   x y z        total         open         nuclear
     -   - - -        -----         ----         -------
     0   0 0 0     -0.000000      0.000000     70.000000

     1   1 0 0     -0.000000      0.000000      0.000000
     1   0 1 0     -0.000000      0.000000      0.000000
     1   0 0 1     -0.000000      0.000000      0.000000

     2   2 0 0    -39.005598      0.000000   1496.883771
     2   1 1 0     -0.068434      0.000000     11.458002
     2   1 0 1     -0.000000      0.000000      0.000000
     2   0 2 0    -38.361490      0.000000    244.875401
     2   0 1 1      0.000000      0.000000      0.000000

 Total times  cpu:        3.5s     wall:        3.6s
