         Total DFT energy =     -382.308236370753
@ Step       Energy      Delta E   Gmax     Grms     Xrms     Xmax   Walltime
@ ---- ---------------- -------- -------- -------- -------- -------- --------
@    0    -382.30823637  0.0D+00  0.00075  0.00023  0.00000  0.00000     40.4
         Total DFT energy =     -382.308259556055
         Total DFT energy =     -382.308259886382
@    1    -382.30825989 -2.4D-05  0.00031  0.00009  0.00504  0.01702     82.9
         Total DFT energy =     -382.308261484781

 Vector   14  Occ=2.000000D+00  E=-6.998026D-01

 Vector   15  Occ=2.000000D+00  E=-6.675215D-01

 Vector   16  Occ=2.000000D+00  E=-5.887206D-01

 Vector   17  Occ=2.000000D+00  E=-5.589343D-01

 Vector   18  Occ=2.000000D+00  E=-5.316554D-01

 Vector   19  Occ=2.000000D+00  E=-5.101704D-01

 Vector   20  Occ=2.000000D+00  E=-4.574413D-01

 Vector   21  Occ=2.000000D+00  E=-4.393684D-01

 Vector   22  Occ=2.000000D+00  E=-4.106230D-01

 Vector   23  Occ=2.000000D+00  E=-3.979567D-01

 Vector   24  Occ=2.000000D+00  E=-3.960781D-01

 Vector   25  Occ=2.000000D+00  E=-3.739893D-01

 Vector   26  Occ=2.000000D+00  E=-3.511536D-01

 Vector   27  Occ=2.000000D+00  E=-3.472877D-01

 Vector   28  Occ=2.000000D+00  E=-3.245239D-01

 Vector   29  Occ=2.000000D+00  E=-3.112384D-01

 Vector   30  Occ=2.000000D+00  E=-2.928107D-01

 Vector   31  Occ=2.000000D+00  E=-2.874475D-01

 Vector   32  Occ=2.000000D+00  E=-2.635700D-01

 Vector   33  Occ=2.000000D+00  E=-2.124638D-01

 Vector   34  Occ=2.000000D+00  E=-1.950756D-01

 Vector   35  Occ=2.000000D+00  E=-1.530782D-01

 Vector   36  Occ=0.000000D+00  E= 3.739592D-02

 Vector   37  Occ=0.000000D+00  E= 9.037926D-02

 Vector   38  Occ=0.000000D+00  E= 1.106299D-01

 Vector   39  Occ=0.000000D+00  E= 1.822363D-01

 Vector   40  Occ=0.000000D+00  E= 2.725416D-01

 Vector   41  Occ=0.000000D+00  E= 3.322383D-01

 Vector   42  Occ=0.000000D+00  E= 3.407111D-01

 Vector   43  Occ=0.000000D+00  E= 3.794453D-01

 Vector   44  Occ=0.000000D+00  E= 3.814734D-01

 Vector   45  Occ=0.000000D+00  E= 4.109959D-01

 Vector   46  Occ=0.000000D+00  E= 4.119826D-01

 Vector   47  Occ=0.000000D+00  E= 4.267692D-01

 Vector   48  Occ=0.000000D+00  E= 4.396612D-01

 Vector   49  Occ=0.000000D+00  E= 4.527023D-01

 Vector   50  Occ=0.000000D+00  E= 4.782382D-01

 Vector   51  Occ=0.000000D+00  E= 5.262553D-01

         Total DFT energy =   -382.308261484781
@    2    -382.30826148 -1.6D-06  0.00009  0.00002  0.00090  0.00251    110.2
         Total DFT energy =     -382.308261633307

                       DFT Final Molecular Orbital Analysis
                       ------------------------------------

 Vector   10  Occ=2.000000D+00  E=-9.992323D+00

 Vector   11  Occ=2.000000D+00  E=-8.095094D-01

 Vector   12  Occ=2.000000D+00  E=-7.539885D-01

 Vector   13  Occ=2.000000D+00  E=-7.179645D-01

 Vector   14  Occ=2.000000D+00  E=-6.997889D-01

 Vector   15  Occ=2.000000D+00  E=-6.675092D-01

 Vector   16  Occ=2.000000D+00  E=-5.887111D-01

 Vector   17  Occ=2.000000D+00  E=-5.589278D-01

 Vector   18  Occ=2.000000D+00  E=-5.316620D-01

 Vector   19  Occ=2.000000D+00  E=-5.101752D-01

 Vector   20  Occ=2.000000D+00  E=-4.574378D-01

 Vector   21  Occ=2.000000D+00  E=-4.393616D-01

 Vector   22  Occ=2.000000D+00  E=-4.106192D-01

 Vector   23  Occ=2.000000D+00  E=-3.979540D-01

 Vector   24  Occ=2.000000D+00  E=-3.960676D-01

 Vector   25  Occ=2.000000D+00  E=-3.739798D-01

 Vector   26  Occ=2.000000D+00  E=-3.511459D-01

 Vector   27  Occ=2.000000D+00  E=-3.472890D-01

 Vector   28  Occ=2.000000D+00  E=-3.245087D-01

 Vector   29  Occ=2.000000D+00  E=-3.112494D-01

 Vector   30  Occ=2.000000D+00  E=-2.928026D-01

 Vector   31  Occ=2.000000D+00  E=-2.874578D-01

 Vector   32  Occ=2.000000D+00  E=-2.635533D-01

 Vector   33  Occ=2.000000D+00  E=-2.124448D-01

 Vector   34  Occ=2.000000D+00  E=-1.950587D-01

 Vector   35  Occ=2.000000D+00  E=-1.530757D-01

 Vector   36  Occ=0.000000D+00  E= 3.739889D-02

 Vector   37  Occ=0.000000D+00  E= 9.036385D-02

 Vector   38  Occ=0.000000D+00  E= 1.106084D-01

 Vector   39  Occ=0.000000D+00  E= 1.822102D-01

 Vector   40  Occ=0.000000D+00  E= 2.725191D-01

 Vector   41  Occ=0.000000D+00  E= 3.322416D-01

 Vector   42  Occ=0.000000D+00  E= 3.407343D-01

 Vector   43  Occ=0.000000D+00  E= 3.794095D-01

 Vector   44  Occ=0.000000D+00  E= 3.814760D-01

 Vector   45  Occ=0.000000D+00  E= 4.109942D-01

 Vector   46  Occ=0.000000D+00  E= 4.119816D-01

 Vector   47  Occ=0.000000D+00  E= 4.267659D-01

 Vector   48  Occ=0.000000D+00  E= 4.396297D-01

 Vector   49  Occ=0.000000D+00  E= 4.527218D-01

 Vector   50  Occ=0.000000D+00  E= 4.782399D-01

 Vector   51  Occ=0.000000D+00  E= 5.262422D-01

     Multipole analysis of the density
     ---------------------------------

     L   x y z        total         alpha         beta         nuclear
     -   - - -        -----         -----         ----         -------
     0   0 0 0     -0.000000    -35.000000    -35.000000     70.000000

     1   1 0 0     -0.000000     -0.000000     -0.000000      0.000000
     1   0 1 0     -0.000000      0.000000      0.000000     -0.000000
     1   0 0 1      0.000001      0.000032      0.000032     -0.000063

     2   2 0 0    -37.703089   -768.177882   -768.177882   1498.652676
     2   1 1 0     -0.053750     -5.808306     -5.808306     11.562862
     2   1 0 1     -0.000002     -0.000021     -0.000021      0.000040
     2   0 2 0    -37.340986   -140.932898   -140.932898    244.524809
     2   0 1 1      0.000001     -0.000006     -0.000006      0.000012

         Total DFT energy =   -382.308261633307
@    3    -382.30826163 -1.5D-07  0.00002  0.00000  0.00019  0.00053    133.8
@    3    -382.30826163 -1.5D-07  0.00002  0.00000  0.00019  0.00053    133.8

 Output coordinates in angstroms (scale by  1.889725989 to convert to a.u.)

  No.       Tag          Charge          X              Y              Z
 ---- ---------------- ---------- -------------- -------------- --------------
    1 C                    6.0000    -1.41730461     0.22848164    -0.00000186
    2 C                    6.0000     1.41730461    -0.22848164    -0.00000121
    3 C                    6.0000    -0.49523995     1.31162368    -0.00000199
    4 C                    6.0000     0.49523995    -1.31162368    -0.00000239
    5 C                    6.0000     0.88946344     1.09106701    -0.00000193
    6 C                    6.0000    -0.88946344    -1.09106701    -0.00000266
    7 H                    1.0000    -0.88129675     2.34020624    -0.00000174
    8 H                    1.0000     0.88129675    -2.34020625    -0.00000232
    9 H                    1.0000     1.57180252     1.95079071    -0.00000146
   10 H                    1.0000    -1.57180252    -1.95079071    -0.00000305
   11 C                    6.0000     2.88608159    -0.52046295     0.00000041
   12 C                    6.0000    -2.88608159     0.52046295    -0.00000032
   13 H                    1.0000     3.13709131    -1.59187824     0.00000108
   14 H                    1.0000    -3.13709131     1.59187824    -0.00000046
   15 C                    6.0000     3.88276397     0.38160624     0.00000247
   16 C                    6.0000    -3.88276397    -0.38160624     0.00000278
   17 H                    1.0000     3.70212694     1.46259679     0.00000184
   18 H                    1.0000    -3.70212695    -1.46259679     0.00000364
   19 H                    1.0000     4.93310692     0.06777390     0.00000434
   20 H                    1.0000    -4.93310692    -0.06777389     0.00000482

 Total times  cpu:      133.3s     wall:      133.8s
