 Output coordinates in angstroms (scale by  1.889725989 to convert to a.u.)

  No.       Tag          Charge          X              Y              Z
 ---- ---------------- ---------- -------------- -------------- --------------
    1 C                    6.0000    -1.41525332     0.23022179     0.00000000
    2 C                    6.0000     1.41525332    -0.23022179     0.00000000
    3 C                    6.0000    -0.49513316     1.31446087     0.00000000
    4 C                    6.0000     0.49513316    -1.31446087     0.00000000
    5 C                    6.0000     0.88940904     1.09094937     0.00000000
    6 C                    6.0000    -0.88940904    -1.09094937     0.00000000
    7 H                    1.0000    -0.87955120     2.34373437     0.00000000
    8 H                    1.0000     0.87955120    -2.34373437     0.00000000
    9 H                    1.0000     1.57790416     1.94500613     0.00000000
   10 H                    1.0000    -1.57790416    -1.94500613     0.00000000
   11 C                    6.0000     2.88458450    -0.52108938     0.00000000
   12 C                    6.0000    -2.88458450     0.52108938     0.00000000
   13 H                    1.0000     3.14033568    -1.59196057     0.00000000
   14 H                    1.0000    -3.14033568     1.59196057     0.00000000
   15 C                    6.0000     3.88004281     0.38225354     0.00000000
   16 C                    6.0000    -3.88004281    -0.38225354     0.00000000
   17 H                    1.0000     3.69467659     1.46243896     0.00000000
   18 H                    1.0000    -3.69467659    -1.46243896     0.00000000
   19 H                    1.0000     4.93164535     0.07110495     0.00000000
   20 H                    1.0000    -4.93164535    -0.07110495     0.00000000

         Total DFT energy =     -378.738228777328

                       DFT Final Molecular Orbital Analysis
                       ------------------------------------

 Vector    1  Occ=2.000000D+00  E=-9.608682D+00

 Vector    2  Occ=2.000000D+00  E=-9.608623D+00

 Vector    3  Occ=2.000000D+00  E=-9.593414D+00

 Vector    4  Occ=2.000000D+00  E=-9.593391D+00

 Vector    5  Occ=2.000000D+00  E=-9.593197D+00

 Vector    6  Occ=2.000000D+00  E=-9.593186D+00

 Vector    7  Occ=2.000000D+00  E=-9.592164D+00

 Vector    8  Occ=2.000000D+00  E=-9.591963D+00

 Vector    9  Occ=2.000000D+00  E=-9.575290D+00

 Vector   10  Occ=2.000000D+00  E=-9.575290D+00

 Vector   11  Occ=2.000000D+00  E=-7.235762D-01

 Vector   12  Occ=2.000000D+00  E=-6.702588D-01

 Vector   13  Occ=2.000000D+00  E=-6.358186D-01

 Vector   14  Occ=2.000000D+00  E=-6.195137D-01

 Vector   15  Occ=2.000000D+00  E=-5.881749D-01

 Vector   16  Occ=2.000000D+00  E=-5.191473D-01

 Vector   17  Occ=2.000000D+00  E=-4.916627D-01

 Vector   18  Occ=2.000000D+00  E=-4.638526D-01

 Vector   19  Occ=2.000000D+00  E=-4.476917D-01

 Vector   20  Occ=2.000000D+00  E=-4.002099D-01

 Vector   21  Occ=2.000000D+00  E=-3.832404D-01

 Vector   22  Occ=2.000000D+00  E=-3.523059D-01

 Vector   23  Occ=2.000000D+00  E=-3.437218D-01

 Vector   24  Occ=2.000000D+00  E=-3.397328D-01

 Vector   25  Occ=2.000000D+00  E=-3.200448D-01

 Vector   26  Occ=2.000000D+00  E=-2.983802D-01

 Vector   27  Occ=2.000000D+00  E=-2.923273D-01

 Vector   28  Occ=2.000000D+00  E=-2.794153D-01

 Vector   29  Occ=2.000000D+00  E=-2.588512D-01

 Vector   30  Occ=2.000000D+00  E=-2.443249D-01

 Vector   31  Occ=2.000000D+00  E=-2.373585D-01

 Vector   32  Occ=2.000000D+00  E=-2.238508D-01

 Vector   33  Occ=2.000000D+00  E=-1.748893D-01

 Vector   34  Occ=2.000000D+00  E=-1.624138D-01

 Vector   35  Occ=2.000000D+00  E=-1.241322D-01

 Vector   36  Occ=0.000000D+00  E= 1.144796D-02

 Vector   37  Occ=0.000000D+00  E= 5.908967D-02

 Vector   38  Occ=0.000000D+00  E= 7.557897D-02

 Vector   39  Occ=0.000000D+00  E= 1.429201D-01

 Vector   40  Occ=0.000000D+00  E= 2.250102D-01

 Vector   41  Occ=0.000000D+00  E= 2.950470D-01

 Vector   42  Occ=0.000000D+00  E= 3.009385D-01

 Vector   43  Occ=0.000000D+00  E= 3.372146D-01

 Vector   44  Occ=0.000000D+00  E= 3.446676D-01

 Vector   45  Occ=0.000000D+00  E= 3.725321D-01

 Vector   46  Occ=0.000000D+00  E= 3.749889D-01

 Vector   47  Occ=0.000000D+00  E= 3.858061D-01

 Vector   48  Occ=0.000000D+00  E= 4.010204D-01

 Vector   49  Occ=0.000000D+00  E= 4.181151D-01

 Vector   50  Occ=0.000000D+00  E= 4.370926D-01

 Vector   51  Occ=0.000000D+00  E= 4.746702D-01

 Vector   52  Occ=0.000000D+00  E= 4.951121D-01

 Vector   53  Occ=0.000000D+00  E= 5.252488D-01

 Vector   54  Occ=0.000000D+00  E= 5.441028D-01

 Vector   55  Occ=0.000000D+00  E= 5.706559D-01

 Vector   56  Occ=0.000000D+00  E= 5.827675D-01

 Vector   57  Occ=0.000000D+00  E= 6.217564D-01

 Vector   58  Occ=0.000000D+00  E= 6.561422D-01

 Vector   59  Occ=0.000000D+00  E= 7.112800D-01

 Vector   60  Occ=0.000000D+00  E= 7.286788D-01

     Multipole analysis of the density
     ---------------------------------

     L   x y z        total         alpha         beta         nuclear
     -   - - -        -----         -----         ----         -------
     0   0 0 0     -0.000000    -35.000000    -35.000000     70.000000

     1   1 0 0      0.000000      0.000000      0.000000      0.000000
     1   0 1 0      0.000000      0.000000      0.000000      0.000000
     1   0 0 1     -0.000000     -0.000000     -0.000000      0.000000

     2   2 0 0    -36.156301   -766.520036   -766.520036   1496.883771
     2   1 1 0     -0.057590     -5.757796     -5.757796     11.458002
     2   1 0 1      0.000000      0.000000      0.000000      0.000000
     2   0 2 0    -36.127017   -140.501209   -140.501209    244.875401
     2   0 1 1      0.000000      0.000000      0.000000      0.000000

 Total times  cpu:       18.0s     wall:       18.1s
