         Total SCF energy =   -379.768962520502
@ Step       Energy      Delta E   Gmax     Grms     Xrms     Xmax   Walltime
@ ---- ---------------- -------- -------- -------- -------- -------- --------
@    0    -379.76896252  0.0D+00  0.04567  0.01110  0.00000  0.00000      7.9
         Total SCF energy =   -379.776275338885
         Total SCF energy =   -379.777871642200
@    1    -379.77787164 -8.9D-03  0.00419  0.00083  0.04323  0.11683     17.8
         Total SCF energy =   -379.777937676707
         Total SCF energy =   -379.777945701513

 Vector   36  Occ=0.000000D+00  E= 2.066121D-01

 Vector   37  Occ=0.000000D+00  E= 2.733666D-01

 Vector   38  Occ=0.000000D+00  E= 3.183189D-01

 Vector   39  Occ=0.000000D+00  E= 4.059847D-01

 Vector   40  Occ=0.000000D+00  E= 5.376646D-01

 Vector   41  Occ=0.000000D+00  E= 5.688878D-01

 Vector   42  Occ=0.000000D+00  E= 5.832040D-01

 Vector   43  Occ=0.000000D+00  E= 6.326185D-01

 Vector   44  Occ=0.000000D+00  E= 6.355366D-01

 Vector   45  Occ=0.000000D+00  E= 6.822888D-01

@    2    -379.77794570 -7.4D-05  0.00116  0.00023  0.00439  0.01814     27.4
         Total SCF energy =   -379.777954714468

 Vector   11  Occ=2.000000D+00  E=-1.106658D+00

 Vector   12  Occ=2.000000D+00  E=-1.031719D+00

 Vector   13  Occ=2.000000D+00  E=-9.884372D-01

 Vector   14  Occ=2.000000D+00  E=-9.609350D-01

 Vector   15  Occ=2.000000D+00  E=-9.226931D-01

 Vector   16  Occ=2.000000D+00  E=-8.064129D-01

 Vector   17  Occ=2.000000D+00  E=-7.712766D-01

 Vector   18  Occ=2.000000D+00  E=-7.329513D-01

 Vector   19  Occ=2.000000D+00  E=-7.072346D-01

 Vector   20  Occ=2.000000D+00  E=-6.391261D-01

 Vector   21  Occ=2.000000D+00  E=-6.150856D-01

 Vector   22  Occ=2.000000D+00  E=-5.776252D-01

 Vector   23  Occ=2.000000D+00  E=-5.638158D-01

 Vector   24  Occ=2.000000D+00  E=-5.628802D-01

 Vector   25  Occ=2.000000D+00  E=-5.325186D-01

 Vector   26  Occ=2.000000D+00  E=-5.074086D-01

 Vector   27  Occ=2.000000D+00  E=-4.981052D-01

 Vector   28  Occ=2.000000D+00  E=-4.772687D-01

 Vector   29  Occ=2.000000D+00  E=-4.486311D-01

 Vector   30  Occ=2.000000D+00  E=-4.259541D-01

 Vector   31  Occ=2.000000D+00  E=-4.181848D-01

 Vector   32  Occ=2.000000D+00  E=-3.868381D-01

 Vector   33  Occ=2.000000D+00  E=-3.269049D-01

 Vector   34  Occ=2.000000D+00  E=-2.855872D-01

 Vector   35  Occ=2.000000D+00  E=-2.332374D-01

 Vector   36  Occ=0.000000D+00  E= 2.069516D-01

 Vector   37  Occ=0.000000D+00  E= 2.731540D-01

 Vector   38  Occ=0.000000D+00  E= 3.186095D-01

 Vector   39  Occ=0.000000D+00  E= 4.060627D-01

 Vector   40  Occ=0.000000D+00  E= 5.375016D-01

 Vector   41  Occ=0.000000D+00  E= 5.684352D-01

 Vector   42  Occ=0.000000D+00  E= 5.827555D-01

 Vector   43  Occ=0.000000D+00  E= 6.323220D-01

 Vector   44  Occ=0.000000D+00  E= 6.348999D-01

 Vector   45  Occ=0.000000D+00  E= 6.824531D-01

         Total SCF energy =   -379.777954714468
@    3    -379.77795471 -9.0D-06  0.00004  0.00002  0.00110  0.00240     34.6
         Total SCF energy =   -379.777954812775

 Vector   11  Occ=2.000000D+00  E=-1.106647D+00

 Vector   12  Occ=2.000000D+00  E=-1.031708D+00

 Vector   13  Occ=2.000000D+00  E=-9.884421D-01

 Vector   14  Occ=2.000000D+00  E=-9.609308D-01

 Vector   15  Occ=2.000000D+00  E=-9.226906D-01

 Vector   16  Occ=2.000000D+00  E=-8.064123D-01

 Vector   17  Occ=2.000000D+00  E=-7.712485D-01

 Vector   18  Occ=2.000000D+00  E=-7.329715D-01

 Vector   19  Occ=2.000000D+00  E=-7.072494D-01

 Vector   20  Occ=2.000000D+00  E=-6.391326D-01

 Vector   21  Occ=2.000000D+00  E=-6.150841D-01

 Vector   22  Occ=2.000000D+00  E=-5.776119D-01

 Vector   23  Occ=2.000000D+00  E=-5.638145D-01

 Vector   24  Occ=2.000000D+00  E=-5.628916D-01

 Vector   25  Occ=2.000000D+00  E=-5.324989D-01

 Vector   26  Occ=2.000000D+00  E=-5.074058D-01

 Vector   27  Occ=2.000000D+00  E=-4.981119D-01

 Vector   28  Occ=2.000000D+00  E=-4.772588D-01

 Vector   29  Occ=2.000000D+00  E=-4.486556D-01

 Vector   30  Occ=2.000000D+00  E=-4.259199D-01

 Vector   31  Occ=2.000000D+00  E=-4.182046D-01

 Vector   32  Occ=2.000000D+00  E=-3.868295D-01

 Vector   33  Occ=2.000000D+00  E=-3.269100D-01

 Vector   34  Occ=2.000000D+00  E=-2.855893D-01

 Vector   35  Occ=2.000000D+00  E=-2.332320D-01

 Vector   36  Occ=0.000000D+00  E= 2.069429D-01

 Vector   37  Occ=0.000000D+00  E= 2.731813D-01

 Vector   38  Occ=0.000000D+00  E= 3.186008D-01

 Vector   39  Occ=0.000000D+00  E= 4.060366D-01

 Vector   40  Occ=0.000000D+00  E= 5.374950D-01

 Vector   41  Occ=0.000000D+00  E= 5.684266D-01

 Vector   42  Occ=0.000000D+00  E= 5.827746D-01

 Vector   43  Occ=0.000000D+00  E= 6.322707D-01

 Vector   44  Occ=0.000000D+00  E= 6.349119D-01

 Vector   45  Occ=0.000000D+00  E= 6.824642D-01

       Multipole analysis of the density wrt the origin
       ------------------------------------------------

     L   x y z        total         open         nuclear
     -   - - -        -----         ----         -------
     0   0 0 0     -0.000000      0.000000     70.000000

     1   1 0 0     -0.000000      0.000000     -0.000000
     1   0 1 0     -0.000000      0.000000     -0.000000
     1   0 0 1     -0.000000      0.000000      0.000001

     2   2 0 0    -39.166818      0.000000   1465.705565
     2   1 1 0     -0.096114      0.000000     10.200562
     2   1 0 1      0.000000      0.000000     -0.000000
     2   0 2 0    -38.490143      0.000000    235.974405
     2   0 1 1      0.000000      0.000000     -0.000000

         Total SCF energy =   -379.777954812775
@    4    -379.77795481 -9.8D-08  0.00002  0.00001  0.00020  0.00047     41.7
@    4    -379.77795481 -9.8D-08  0.00002  0.00001  0.00020  0.00047     41.7

 Output coordinates in angstroms (scale by  1.889725989 to convert to a.u.)

  No.       Tag          Charge          X              Y              Z
 ---- ---------------- ---------- -------------- -------------- --------------
    1 C                    6.0000    -1.39395309     0.22137057     0.00000002
    2 C                    6.0000     1.39395309    -0.22137057     0.00000002
    3 C                    6.0000    -0.49192837     1.28688371     0.00000002
    4 C                    6.0000     0.49192837    -1.28688371     0.00000002
    5 C                    6.0000     0.87335887     1.07313725     0.00000002
    6 C                    6.0000    -0.87335887    -1.07313725     0.00000002
    7 H                    1.0000    -0.87135767     2.30080554     0.00000002
    8 H                    1.0000     0.87135767    -2.30080554     0.00000002
    9 H                    1.0000     1.53942244     1.92496686     0.00000001
   10 H                    1.0000    -1.53942244    -1.92496686     0.00000001
   11 C                    6.0000     2.86217351    -0.50908057     0.00000000
   12 C                    6.0000    -2.86217351     0.50908058     0.00000000
   13 H                    1.0000     3.10754688    -1.56534861     0.00000000
   14 H                    1.0000    -3.10754688     1.56534861     0.00000000
   15 C                    6.0000     3.83779860     0.37055819    -0.00000002
   16 C                    6.0000    -3.83779860    -0.37055819    -0.00000002
   17 H                    1.0000     3.67049411     1.43792254    -0.00000003
   18 H                    1.0000    -3.67049410    -1.43792254    -0.00000003
   19 H                    1.0000     4.87336753     0.05998319    -0.00000004
   20 H                    1.0000    -4.87336753    -0.05998319    -0.00000004

 Total times  cpu:       41.4s     wall:       41.8s
